
#(C) 2024 by FIZ Karlsruhe - Leibniz Institute for Information Infrastructure.  All rights reserved.
data_84180-ICSD
_database_code_ICSD 84180
_audit_creation_date 1999-01-19
_audit_update_record 2023-08-01
_chemical_name_common 'Molybdenum(IV) sulfide - 2H'
_chemical_formula_structural 'Mo S2'
_chemical_formula_sum 'Mo1 S2'
_chemical_name_structure_type MoS2-[2H]
_exptl_crystal_density_diffrn 5.
_citation_title

;
Characteristics of the crystal structure, electrophysical properties, and
model of the valence band spectrum of laminar compounds of molybdenum
disulfide type
;
loop_
_citation_id
_citation_journal_full
_citation_year
_citation_journal_volume
_citation_page_first
_citation_page_last
_citation_journal_id_ASTM
primary 'Izvestiya Akademii Nauk SSSR, Neorganicheskie Materialy' 1983 19 1060
1065 IVNMAW
loop_
_citation_author_citation_id
_citation_author_name
primary 'Kalikhman, V.L.'
_cell_length_a 3.16
_cell_length_b 3.16
_cell_length_c 12.29
_cell_angle_alpha 90.
_cell_angle_beta 90.
_cell_angle_gamma 120.
_cell_volume 106.28
_cell_formula_units_Z 2
_space_group_name_H-M_alt 'P 63/m m c'
_space_group_IT_number 194
loop_
_space_group_symop_id
_space_group_symop_operation_xyz
1 'x, x-y, -z+1/2'
2 '-x+y, y, -z+1/2'
3 '-y, -x, -z+1/2'
4 '-x+y, -x, -z+1/2'
5 '-y, x-y, -z+1/2'
6 'x, y, -z+1/2'
7 '-x, -x+y, z+1/2'
8 'x-y, -y, z+1/2'
9 'y, x, z+1/2'
10 'x-y, x, z+1/2'
11 'y, -x+y, z+1/2'
12 '-x, -y, z+1/2'
13 '-x, -x+y, -z'
14 'x-y, -y, -z'
15 'y, x, -z'
16 'x-y, x, -z'
17 'y, -x+y, -z'
18 '-x, -y, -z'
19 'x, x-y, z'
20 '-x+y, y, z'
21 '-y, -x, z'
22 '-x+y, -x, z'
23 '-y, x-y, z'
24 'x, y, z'
loop_
_atom_type_symbol
_atom_type_oxidation_number
Mo4+ 4
S2- -2
loop_
_atom_site_label
_atom_site_type_symbol
_atom_site_symmetry_multiplicity
_atom_site_Wyckoff_symbol
_atom_site_fract_x
_atom_site_fract_y
_atom_site_fract_z
_atom_site_B_iso_or_equiv
_atom_site_occupancy
Mo1 Mo4+ 2 d 0.6667 0.3333 0.25 . 1.
S1 S2- 4 f 0.3333 0.6667 0.120(1) . 1.
#End of TTdata_84180-ICSD