
#(C) 2024 by FIZ Karlsruhe - Leibniz Institute for Information Infrastructure.  All rights reserved.
data_38401-ICSD
_database_code_ICSD 38401
_audit_creation_date 1984-10-16
_audit_update_record 2024-02-01
_chemical_name_common 'Molybdenum(IV) sulfide'
_chemical_formula_structural 'Mo S2'
_chemical_formula_sum 'Mo1 S2'
_chemical_name_structure_type MoS2-[3R]
_chemical_name_mineral Molybdenite
_exptl_crystal_density_diffrn 4.99
_citation_title

;
Detailed crystal structure of rhombohedral Mo S2 and systematic deduction of
possible polytypes of molybdenite
;
loop_
_citation_id
_citation_journal_full
_citation_year
_citation_journal_volume
_citation_page_first
_citation_page_last
_citation_journal_id_ASTM
primary 'Schweizerische Mineralogische und Petrographische Mitteilungen' 1964 44
105 120 SMPTA8
loop_
_citation_author_citation_id
_citation_author_name
primary 'Takeuchi, Y.'
primary 'Nowacki, W.'
_cell_length_a 3.166(5)
_cell_length_b 3.166(5)
_cell_length_c 18.410(20)
_cell_angle_alpha 90.
_cell_angle_beta 90.
_cell_angle_gamma 120.
_cell_volume 159.81
_cell_formula_units_Z 3
_space_group_name_H-M_alt 'R 3 m H'
_space_group_IT_number 160
loop_
_space_group_symop_id
_space_group_symop_operation_xyz
1 '-x+y, y, z'
2 'x, x-y, z'
3 '-y, -x, z'
4 '-x+y, -x, z'
5 '-y, x-y, z'
6 'x, y, z'
7 '-x+y+2/3, y+1/3, z+1/3'
8 'x+2/3, x-y+1/3, z+1/3'
9 '-y+2/3, -x+1/3, z+1/3'
10 '-x+y+2/3, -x+1/3, z+1/3'
11 '-y+2/3, x-y+1/3, z+1/3'
12 'x+2/3, y+1/3, z+1/3'
13 '-x+y+1/3, y+2/3, z+2/3'
14 'x+1/3, x-y+2/3, z+2/3'
15 '-y+1/3, -x+2/3, z+2/3'
16 '-x+y+1/3, -x+2/3, z+2/3'
17 '-y+1/3, x-y+2/3, z+2/3'
18 'x+1/3, y+2/3, z+2/3'
loop_
_atom_type_symbol
_atom_type_oxidation_number
Mo4+ 4
S2- -2
loop_
_atom_site_label
_atom_site_type_symbol
_atom_site_symmetry_multiplicity
_atom_site_Wyckoff_symbol
_atom_site_fract_x
_atom_site_fract_y
_atom_site_fract_z
_atom_site_B_iso_or_equiv
_atom_site_occupancy
Mo1 Mo4+ 3 a 0 0 0 0.5 1.
S1 S2- 3 a 0 0 0.2477 0.5 1.
S2 S2- 3 a 0 0 0.419 0.5 1.
#End of TTdata_38401-ICSD